ITEM: TIMESTEP
100000
ITEM: NUMBER OF ENTRIES
2514
ITEM: BOX BOUNDS ff ff ff
-0.045 0.045
-0.025 0.025
0 0.003
ITEM: ENTRIES c_q[13] c_q[14] c_q[15] c_q[16] c_q[17] c_q[18] c_q[19] c_q[20] c_q[21] 
2 5 0 -0.0998864 0.0119035 -0.000414142 -0.0998864 5.58911e-07 -1.49898e-07 
2 1 0 3.36115 -4.89527 0.292744 2.96591 -5.12372 0.298715 
2 3 0 -3.16556 -4.38548 0.26266 -2.6972 -4.65624 0.271962 
5 6 0 -0.124626 0.0123604 -0.0015974 -0.124626 5.95547e-07 -2.59183e-07 
5 3 0 3.38134 -4.8734 0.291713 2.96236 -5.11562 0.2988 
5 4 0 -3.25779 -4.51728 0.271656 -2.77752 -4.79498 0.280127 
6 9 0 -0.176699 0.0175962 0.00161776 -0.176699 5.50211e-07 2.91054e-07 
6 4 0 3.43374 -4.94257 0.298271 3.00563 -5.1902 0.303226 
6 7 0 -3.28501 -4.54871 0.271173 -2.79791 -4.83022 0.282182 
9 11 0 -0.366308 0.0219784 -0.010149 -0.366308 -3.58129e-06 -3.10987e-06 
9 7 0 3.38789 -5.0843 0.299174 3.0554 -5.2763 0.308231 
9 8 0 -3.09793 -4.47326 0.275621 -2.71807 -4.69333 0.274254 
11 13 0 -0.42672 0.0128709 0.0379101 -0.42672 -1.24973e-06 7.74266e-06 
11 8 0 3.18185 -4.86523 0.322408 2.90946 -5.02464 0.293667 
11 10 0 -3.02256 -4.47416 0.238308 -2.69849 -4.65985 0.272179 
13 15 0 -0.305256 0.00383539 -0.0075876 -0.305256 -1.73245e-06 -2.27513e-06 
13 10 0 3.13614 -4.69349 0.31362 2.82345 -4.87623 0.284716 
13 12 0 -3.16054 -4.58451 0.244971 -2.78112 -4.80217 0.280396 
15 17 0 -0.337837 0.008004 -0.00649394 -0.337837 5.44347e-06 -3.1543e-06 
15 12 0 3.2991 -4.77747 0.273638 2.89979 -5.0076 0.292436 
15 14 0 -3.17007 -4.39595 0.277677 -2.70294 -4.66679 0.272655 
17 19 0 -0.451984 0.0166528 0.0170621 -0.451984 -1.60372e-05 8.4338e-06 
17 14 0 2.98235 -5.01088 0.314854 2.92216 -5.0469 0.294911 
17 16 0 -2.76832 -4.50316 0.259913 -2.64753 -4.57268 0.267083 
19 21 0 -0.347227 0.0116706 -0.00504952 -0.347227 3.20127e-06 -1.24391e-06 
19 16 0 2.98196 -4.43064 0.280143 2.67047 -4.61165 0.269271 
19 18 0 -2.99478 -4.33554 0.247064 -2.6319 -4.54463 0.265277 
21 23 0 -0.34621 -0.00248621 -0.0263934 -0.34621 2.43964e-06 -4.41096e-06 
21 18 0 3.02918 -4.63214 0.249119 2.76845 -4.78136 0.279113 
21 20 0 -2.93671 -4.31331 0.292243 -2.60897 -4.50482 0.263123 
23 24 0 -0.458421 0.0190666 0.00975994 -0.458421 -4.79141e-06 3.57164e-06 
23 20 0 2.94143 -4.81622 0.275273 2.82668 -4.88208 0.285228 
23 22 0 -2.73343 -4.31008 0.275645 -2.55584 -4.41395 0.257881 
24 27 0 -0.368043 0.0248716 0.0155108 -0.368042 -6.40465e-06 2.97597e-06 
24 22 0 2.82487 -4.49347 0.30053 2.65856 -4.59165 0.268225 
24 25 0 -2.82234 -4.40198 0.238559 -2.61689 -4.51946 0.263872 
27 28 0 -0.281164 0.0276804 0.00492613 -0.281164 -7.59626e-07 -1.5851e-06 
27 25 0 3.05513 -4.30307 0.283706 2.63368 -4.54818 0.265511 
27 26 0 -3.0552 -4.23416 0.232213 -2.60277 -4.4944 0.262435 
28 31 0 -0.436151 0.0367195 0.023536 -0.436151 -1.153e-06 1.4016e-06 
28 26 0 3.137 -4.4747 0.30343 2.72883 -4.71269 0.275212 
28 29 0 -2.89322 -4.01552 0.211091 -2.46696 -4.26016 0.248747 
31 32 0 -0.538986 0.00916363 0.0324494 -0.538986 2.79677e-06 2.82533e-07 
31 29 0 3.01494 -4.40259 0.325101 2.66731 -4.60713 0.26899 
31 30 0 -2.8239 -3.99773 0.183332 -2.44114 -4.21571 0.246128 
32 35 0 -0.59374 0.0383278 0.0282939 -0.59374 -6.49781e-06 3.09392e-06 
32 30 0 2.86225 -4.44194 0.33246 2.64613 -4.57089 0.26686 
32 33 0 -2.71835 -4.11991 0.185969 -2.46739 -4.26155 0.248742 
35 36 0 -0.649654 0.0267516 0.0136625 -0.649654 -3.42734e-06 -2.89918e-06 
35 33 0 2.87798 -4.2903 0.30553 2.58392 -4.46318 0.260487 
35 34 0 -2.73539 -4.01053 0.197358 -2.42459 -4.18773 0.244445 
36 39 0 -0.642602 0.0188997 0.0276324 -0.642602 -3.03989e-06 5.17984e-06 
36 34 0 2.83216 -4.20282 0.298921 2.53435 -4.37776 0.255561 
36 37 0 -2.75336 -3.99628 0.19792 -2.42293 -4.1849 0.244178 
39 37 0 2.85477 -4.163 0.288345 2.52253 -4.35733 0.254199 
39 38 0 -2.77012 -3.96646 0.204416 -2.41438 -4.17015 0.243324 
1 41 0 -3.5066 -4.92191 -0.295856 -3.01507 -5.20609 -0.30419 
1 3 0 -0.468802 -0.0426 -0.0194337 -0.468796 4.31385e-05 4.10144e-05 
41 3 0 -3.28487 4.5569 0.305707 -2.8014 4.83816 0.283152 
41 44 0 -0.24202 -0.00174774 -0.0217788 -0.24202 2.60683e-05 9.37185e-07 
41 40 0 3.43292 -4.76143 0.308888 2.92725 -5.05504 0.295358 
41 42 0 -3.40091 -4.7173 0.294759 -2.90071 -5.00717 0.29319 
3 4 0 -0.135147 -0.014148 0.00234712 -0.135146 2.94524e-06 1.16293e-06 
3 44 0 -3.3899 -4.73365 -0.253048 -2.90371 -5.01292 -0.293394 
4 44 0 3.50485 -4.86065 -0.311922 2.98848 -5.16028 -0.302063 
4 45 0 -3.31579 -4.60152 -0.261109 -2.8282 -4.88252 -0.285767 
4 7 0 -0.136887 -0.012657 -0.00226591 -0.136887 1.07535e-06 -3.85238e-07 
44 45 0 -0.107647 -0.000996914 0.00436536 -0.107647 6.3829e-07 7.42227e-07 
44 42 0 3.42757 -4.8317 0.300747 2.95573 -5.10499 0.298858 
44 43 0 -3.43552 -4.76478 0.266084 -2.92914 -5.05638 0.295985 
45 7 0 -3.44398 4.94867 0.312509 -3.01125 5.19975 0.304314 
45 48 0 -0.458987 0.022094 -0.0332162 -0.458986 -2.97418e-05 -1.37143e-05 
45 43 0 3.69807 -5.12675 0.314585 3.1521 -5.44271 0.318555 
45 46 0 -3.20657 -4.44762 0.262356 -2.7337 -4.72064 0.276336 
7 8 0 -0.342309 -0.0151251 0.0123258 -0.34231 -2.00633e-05 6.14041e-06 
7 48 0 -3.12114 -4.68515 -0.260614 -2.81487 -4.86109 -0.284641 
8 48 0 3.40975 -4.73251 -0.364858 2.91066 -5.02569 -0.294404 
8 50 0 -3.21703 -4.6245 -0.237824 -2.81199 -4.85632 -0.284298 
8 10 0 -0.437361 0.00224398 -0.0346186 -0.437362 -1.3528e-05 -1.28369e-05 
48 50 0 -0.385188 0.0244566 0.0253515 -0.385187 -2.64344e-05 1.10567e-05 
48 46 0 3.34493 -5.0836 0.367921 3.04601 -5.26019 0.308125 
48 47 0 -3.11844 -4.33897 0.259796 -2.66435 -4.60133 0.269545 
50 10 0 -3.32083 4.60768 0.340541 -2.83359 4.89302 0.28629 
50 52 0 -0.266273 0.0226658 -0.0127483 -0.266272 -5.09925e-07 8.05433e-06 
50 47 0 3.28626 -4.66154 0.360019 2.84871 -4.91914 0.288022 
50 49 0 -3.29227 -4.57055 0.220189 -2.8073 -4.8477 0.283498 
10 12 0 -0.373397 0.0271955 0.0176461 -0.373397 1.2234e-05 -3.98698e-07 
10 52 0 -3.25977 -4.5858 -0.215462 -2.80574 -4.84478 -0.283297 
12 52 0 3.15196 -4.63455 -0.250821 2.80039 -4.83625 -0.282782 
12 14 0 -0.199969 0.0179645 0.00833923 -0.19997 -1.06046e-06 4.55462e-06 
12 54 0 -3.17642 -4.71983 -0.270243 -2.84409 -4.91127 -0.287475 
52 54 0 -0.454346 0.0183449 -0.0160461 -0.454348 1.47861e-05 -2.36098e-05 
52 49 0 3.26282 -4.52769 0.241719 2.78202 -4.80385 0.280766 
52 51 0 -3.1733 -4.68966 0.225948 -2.82909 -4.88549 0.285832 
14 54 0 3.08759 -4.52439 -0.348491 2.73957 -4.73014 -0.276999 
14 56 0 -2.73536 -4.83987 -0.24445 -2.78403 -4.80954 -0.281404 
14 16 0 -0.728022 -0.0262599 -0.00267317 -0.728023 -5.18264e-05 -1.31219e-05 
16 56 0 2.93111 -4.47351 -0.267334 2.67611 -4.62101 -0.270299 
16 18 0 -0.204481 -0.00849048 0.00232698 -0.204481 1.79928e-06 -3.2319e-06 
16 58 0 -3.23034 -4.47988 -0.27683 -2.75414 -4.75559 -0.278186 
54 56 0 -0.635775 0.061857 0.00560437 -0.635768 -6.97041e-05 2.39055e-05 
54 51 0 2.83499 -4.6755 0.362823 2.74155 -4.73462 0.27728 
54 53 0 -2.72987 -4.61423 0.260837 -2.68562 -4.63922 0.271481 
56 58 0 -0.164386 0.0150104 0.00264131 -0.164386 4.34281e-06 -2.02025e-07 
56 53 0 3.04195 -4.67913 0.261887 2.7927 -4.8223 0.28202 
56 55 0 -3.30747 -4.58888 0.248742 -2.82003 -4.86909 0.284745 
18 58 0 3.24253 -4.49907 -0.245027 2.76458 -4.77385 -0.279164 
18 60 0 -3.11509 -4.45919 -0.253403 -2.71568 -4.68927 -0.274274 
18 20 0 -0.28785 -0.019493 0.0172061 -0.28785 4.59133e-06 8.19931e-06 
20 60 0 2.99313 -4.60207 -0.290683 2.74763 -4.74499 -0.277685 
20 22 0 -0.5533 -0.0222681 -0.00568452 -0.553301 -2.64464e-05 1.80217e-06 
20 62 0 -2.71155 -4.52665 -0.280156 -2.64384 -4.5666 -0.267379 
58 60 0 -0.209154 -0.00366647 -0.0151956 -0.209154 -1.04288e-06 -2.23281e-06 
58 55 0 3.26385 -4.52865 0.245875 2.78279 -4.80518 0.281006 
58 57 0 -3.19808 -4.4326 0.27703 -2.72558 -4.70633 0.275337 
60 62 0 -0.609211 0.0161264 -0.0117294 -0.60921 -3.89348e-05 -1.77654e-05 
60 57 0 3.10544 -4.60118 0.296868 2.77572 -4.79308 0.280473 
60 59 0 -2.81656 -4.48154 0.250608 -2.64989 -4.57702 0.267921 
22 62 0 2.8892 -4.46161 -0.349321 2.66236 -4.59766 -0.26923 
22 63 0 -2.83166 -4.38926 -0.232943 -2.61363 -4.51368 -0.264137 
22 25 0 -0.507781 0.0230723 -0.030016 -0.507781 -6.94173e-07 -1.31692e-05 
62 63 0 -0.350198 0.0117682 0.0141969 -0.350199 -7.62586e-06 1.12933e-05 
62 59 0 2.99721 -4.59134 0.353373 2.74559 -4.74147 0.277728 
62 61 0 -3.06593 -4.39484 0.278753 -2.67598 -4.62112 0.270627 
63 25 0 -2.96525 4.51067 0.308972 -2.70135 4.66558 0.272887 
63 66 0 -0.271258 0.0270304 0.00237187 -0.271259 8.54829e-06 -7.72186e-07 
63 61 0 3.2231 -4.5311 0.334395 2.7757 -4.79333 0.28054 
63 64 0 -3.15981 -4.38477 0.210455 -2.69367 -4.65112 0.272147 
25 26 0 -0.208656 0.0207994 0.00169591 -0.208656 2.64459e-06 2.37527e-06 
25 66 0 -3.02164 -4.19388 -0.216264 -2.57668 -4.449 -0.260243 
26 66 0 3.12295 -4.44411 -0.331754 2.71278 -4.68499 -0.274105 
26 67 0 -2.94031 -4.23091 -0.20512 -2.57164 -4.44118 -0.259841 
26 29 0 -0.296405 -0.016283 -0.0138232 -0.296406 -1.50447e-05 -1.44136e-06 
66 67 0 -0.4109 0.040934 -0.00342769 -0.410899 -1.27507e-05 -8.06845e-07 
66 64 0 3.16544 -4.43906 0.350598 2.72173 -4.70041 0.275037 
66 65 0 -2.91374 -4.21469 0.200552 -2.55787 -4.41737 0.258441 
67 29 0 -3.16454 4.39573 0.354374 -2.70306 4.66773 0.273086 
67 70 0 -0.290836 -0.0225657 -0.0144839 -0.290838 -2.38126e-05 -5.52261e-07 
67 65 0 3.06326 -4.47189 0.340889 2.71005 -4.68033 0.273846 
67 68 0 -2.94969 -4.09401 0.216981 -2.51504 -4.34351 0.254191 
29 70 0 -2.8676 -4.04905 -0.186875 -2.47425 -4.27312 -0.249985 
29 30 0 -0.459779 0.00935822 0.00637251 -0.459779 -7.30395e-06 -3.50497e-07 
30 70 0 2.94847 -4.28835 -0.363221 2.60232 -4.49463 -0.262944 
30 71 0 -2.65549 -4.10978 -0.153324 -2.44637 -4.22537 -0.247089 
30 33 0 -0.704092 -0.0341603 -0.013539 -0.704093 -9.96067e-06 -7.75541e-06 
70 71 0 -0.561505 0.031024 -0.00218149 -0.561504 -2.48606e-05 1.03748e-05 
70 68 0 3.20008 -4.45025 0.37497 2.73611 -4.72471 0.276535 
70 69 0 -2.83649 -3.94222 0.181265 -2.41999 -4.17967 0.244535 
71 33 0 -2.75228 4.36955 0.335191 -2.58738 4.46934 0.261303 
71 74 0 -0.724427 0.0119671 0.0201717 -0.724427 -1.37469e-05 -6.37995e-06 
71 69 0 2.93564 -4.3747 0.372436 2.63663 -4.55402 0.266352 
71 72 0 -2.66613 -4.08755 0.117458 -2.43847 -4.21182 0.246314 
33 74 0 -2.67832 -4.08589 -0.16201 -2.44194 -4.2178 -0.246634 
33 34 0 -0.608788 0.00917782 -0.00794119 -0.608788 -1.67634e-05 5.20875e-06 
34 74 0 2.884 -4.21213 -0.370559 2.55332 -4.41018 -0.257935 
34 75 0 -2.72891 -4.00069 -0.128775 -2.41691 -4.17459 -0.244009 
34 37 0 -0.656954 0.00663924 -0.0489995 -0.656956 -5.40881e-06 -1.6619e-05 
74 75 0 -0.601965 0.0221999 0.00817378 -0.601964 -2.16182e-05 1.70907e-05 
74 72 0 2.79201 -4.31644 0.405214 2.57612 -4.4499 0.260289 
74 73 0 -2.69845 -3.99399 0.130545 -2.40642 -4.15649 0.242997 
75 37 0 -2.81059 4.15041 0.301765 -2.50638 4.32938 0.252933 
75 78 0 -0.682005 0.0102914 0.02692 -0.682006 -8.5833e-06 9.01178e-06 
75 73 0 2.91776 -4.18086 0.350744 2.54774 -4.40056 0.257132 
75 76 0 -2.74743 -3.96017 0.0811052 -2.40282 -4.15027 0.242341 
37 78 0 -2.71474 -4.01888 -0.187743 -2.42269 -4.18465 -0.24441 
37 38 0 -0.642775 0.0148417 0.0456018 -0.642776 -4.83062e-06 6.22673e-06 
38 78 0 2.83978 -4.05944 -0.227786 2.4725 -4.27079 -0.249491 
78 76 0 2.84622 -4.16598 0.257885 2.52089 -4.35453 0.254206 
78 77 0 -2.77675 -3.917 0.159759 -2.39356 -4.13408 0.241496 
40 80 0 -3.43051 -4.74689 -0.309257 -2.92149 -5.04264 -0.294766 
40 42 0 -0.101586 -0.00557647 -0.000873835 -0.101585 8.73475e-06 1.05122e-05 
80 42 0 -3.50585 4.92735 0.336962 -3.01789 5.21176 0.305246 
80 83 0 -0.0580054 0.00580522 1.14918e-05 -0.0580059 4.64352e-06 1.63651e-06 
80 79 0 3.57009 -4.94698 0.354164 3.04439 -5.25431 0.307294 
80 81 0 -3.42065 -4.73398 0.294712 -2.91351 -5.02787 0.294475 
42 43 0 -0.277073 0.0197365 -0.0119292 -0.277075 2.99356e-05 -3.00061e-06 
42 83 0 -3.29178 -4.64879 -0.262343 -2.84317 -4.90724 -0.287278 
43 83 0 3.32478 -5.27989 -0.327894 3.12424 -5.39669 -0.315823 
43 84 0 -2.97235 -4.56837 -0.251814 -2.72676 -4.70918 -0.275703 
43 46 0 -0.356553 -0.0254054 0.0139757 -0.356556 -4.08112e-05 5.21188e-06 
83 84 0 -0.998874 0.0583543 -0.0773863 -0.998873 -5.02057e-05 -2.38095e-05 
83 81 0 3.58936 -5.49218 0.312063 3.2824 -5.66876 0.331795 
83 82 0 -2.60449 -4.49071 0.283174 -2.6015 -4.49362 0.262934 
84 46 0 -3.40361 4.9075 0.3313 -2.98403 5.15224 0.301769 
84 87 0 -0.682231 0.0264188 0.0216003 -0.682227 -0.000105476 6.95237e-06 
84 82 0 2.65628 -4.9495 0.272663 2.8126 -4.85831 0.284423 
84 85 0 -2.52908 -4.49612 0.310568 -2.58525 -4.46648 0.261572 
46 47 0 -0.551135 -0.00915746 0.0467838 -0.551137 -5.58468e-05 4.67907e-06 
46 87 0 -3.05846 -4.64187 -0.30226 -2.78087 -4.8038 -0.281254 
47 87 0 3.22061 -4.46594 -0.316268 2.74682 -4.7426 -0.27775 
47 89 0 -3.26598 -4.52823 -0.305281 -2.78444 -4.80847 -0.281502 
47 49 0 -0.325183 -0.0160027 -5.03015e-05 -0.325183 -5.14739e-06 -1.93985e-05 
87 89 0 -0.210028 0.000703742 -0.0188686 -0.210028 -6.91207e-06 3.59396e-06 
87 85 0 3.01881 -4.482 0.307953 2.70289 -4.667 0.273309 
87 86 0 -3.32005 -4.60146 0.311325 -2.8299 -4.88679 0.285986 
89 49 0 -3.26803 4.53678 0.229948 -2.78693 4.81238 0.281403 
89 91 0 -0.335525 0.0032352 -0.00589656 -0.335525 -2.90066e-06 -1.35841e-05 
89 86 0 3.22918 -4.64928 0.223949 2.82596 -4.87922 0.285457 
89 88 0 -3.08973 -4.42047 0.313639 -2.69375 -4.65216 0.272576 
49 51 0 -0.308745 0.00682485 0.0220456 -0.308746 -8.73478e-07 1.61288e-05 
49 91 0 -3.3046 -4.58596 -0.235461 -2.81732 -4.86524 -0.28472 
51 91 0 3.01675 -4.55037 -0.417397 2.73463 -4.722 -0.276624 
51 53 0 -0.805505 -0.0313114 -0.0386645 -0.805509 -5.69656e-05 -2.85407e-05 
51 93 0 -2.84599 -4.77841 -0.171262 -2.78339 -4.80822 -0.281217 
91 93 0 -0.684502 0.0241553 0.0392033 -0.684503 -5.67783e-05 5.29371e-05 
91 88 0 2.82536 -4.3865 0.484522 2.61741 -4.51979 0.265035 
91 90 0 -2.7501 -4.7734 0.172616 -2.75724 -4.76305 0.278777 
53 93 0 3.00693 -4.66006 -0.279107 2.77596 -4.79375 -0.280197 
53 95 0 -3.32379 -4.66066 -0.246776 -2.85509 -4.92969 -0.288276 
53 55 0 -0.166581 -0.00558675 0.00125593 -0.166581 3.9564e-06 -5.71211e-07 
55 95 0 3.28219 -4.54903 -0.251615 2.79641 -4.82857 -0.282336 
55 57 0 -0.192223 0.00600386 0.00558415 -0.192223 -1.82232e-06 4.04046e-06 
55 97 0 -3.28814 -4.5802 -0.245277 -2.81113 -4.85418 -0.283908 
93 95 0 -0.248588 0.000328528 -0.00281567 -0.248588 1.26714e-05 -5.04823e-06 
93 90 0 2.90517 -4.65081 0.302454 2.7472 -4.74376 0.27725 
93 92 0 -3.17164 -4.76509 0.147617 -2.85961 -4.93758 0.288377 
95 97 0 -0.226785 -0.00648137 -0.0198565 -0.226785 -9.74791e-07 -3.05951e-06 
95 92 0 3.05548 -4.57831 0.238693 2.75175 -4.75192 0.277629 
95 94 0 -3.11145 -4.62743 0.261206 -2.78775 -4.81371 0.281543 
57 97 0 3.23556 -4.53702 -0.284202 2.78042 -4.80081 -0.280906 
57 99 0 -2.99995 -4.51735 -0.293179 -2.71239 -4.68494 -0.274281 
57 59 0 -0.50812 0.0240277 0.036218 -0.508119 -4.46836e-05 1.13737e-05 
59 99 0 3.18891 -4.63653 -0.346438 2.81324 -4.85771 -0.284551 
59 61 0 -0.36859 0.0231572 -0.0219201 -0.36859 -4.02007e-06 -3.33464e-06 
59 101 0 -3.1353 -4.43755 -0.26019 -2.71137 -4.68222 -0.27424 
97 99 0 -0.430626 0.00725364 -0.0152336 -0.430626 -3.80269e-05 -1.45311e-05 
97 94 0 3.09834 -4.68063 0.271781 2.80773 -4.84823 0.28364 
97 96 0 -2.93654 -4.45185 0.26049 -2.6675 -4.6071 0.269603 
99 101 0 -0.282925 0.0121823 -0.00943681 -0.282925 -1.22919e-05 9.01414e-07 
99 96 0 3.14297 -4.71021 0.329087 2.83315 -4.89214 0.286504 
99 98 0 -3.08905 -4.45082 0.31371 -2.70685 -4.67447 0.273895 
61 101 0 3.217 -4.51699 -0.364607 2.76881 -4.78147 -0.280007 
61 102 0 -3.18235 -4.41035 -0.251126 -2.71137 -4.68176 -0.274143 
61 64 0 -0.23625 0.0236048 -0.00101331 -0.23625 1.37086e-06 -3.12294e-06 
101 102 0 -0.266458 0.0267512 0.00431437 -0.266459 2.5725e-06 1.36596e-06 
101 98 0 3.26991 -4.54397 0.373794 2.7942 -4.82481 0.2827 
101 100 0 -3.19227 -4.42511 0.254676 -2.72031 -4.69724 0.275115 
102 64 0 -3.21476 4.50442 0.370269 -2.76302 4.77134 0.279313 
102 105 0 -0.377052 0.0247718 -0.00911635 -0.377051 -1.95891e-05 5.98167e-06 
102 100 0 3.17051 -4.52608 0.385077 2.76165 -4.76905 0.279289 
102 103 0 -3.01335 -4.39045 0.239048 -2.65968 -4.59347 0.268995 
64 65 0 -0.39414 0.0120533 0.00179924 -0.394139 -1.5024e-05 -1.77211e-06 
64 105 0 -3.03828 -4.31079 -0.192714 -2.63038 -4.54269 -0.265829 
65 105 0 3.14426 -4.47875 -0.358085 2.73389 -4.72117 -0.27626 
65 106 0 -2.95624 -4.2177 -0.186113 -2.56934 -4.43742 -0.259637 
65 68 0 -0.421902 0.0200584 -0.00491883 -0.421901 -1.95283e-05 5.48263e-06 
105 106 0 -0.405425 0.0381829 0.0139174 -0.405423 -2.45201e-05 1.37223e-07 
105 103 0 3.13249 -4.47192 0.377614 2.72863 -4.71176 0.275851 
105 104 0 -2.98703 -4.33276 0.176363 -2.62644 -4.53631 0.265492 
106 68 0 -3.06314 4.43916 0.385833 -2.69709 4.65775 0.272613 
106 109 0 -0.490475 0.0395008 -0.00693169 -0.490471 -4.19782e-05 -2.98175e-06 
106 104 0 3.05391 -4.40853 0.409966 2.68234 -4.63184 0.271101 
106 107 0 -2.85091 -4.25179 0.164475 -2.55686 -4.41653 0.258384 
68 109 0 -2.89626 -4.05668 -0.205421 -2.48498 -4.29211 -0.251218 
68 69 0 -0.327932 -0.0311362 0.000972856 -0.327935 -3.99823e-05 -4.43351e-06 
69 109 0 3.17484 -4.41416 -0.375887 2.71433 -4.68681 -0.274285 
69 110 0 -2.75269 -3.97921 -0.185448 -2.41496 -4.17131 -0.244062 
69 72 0 -0.638207 0.0444065 0.0265413 -0.638205 -3.33188e-05 -1.15614e-06 
109 110 0 -0.332607 -0.0332683 -0.00166832 -0.332612 -4.89701e-05 9.33518e-07 
109 107 0 3.01457 -4.36484 0.370015 2.65253 -4.58047 0.268034 
109 108 0 -2.88447 -4.03657 0.209128 -2.47336 -4.27219 0.250081 
110 72 0 -2.84683 4.32492 0.399737 -2.59355 4.47961 0.262107 
110 113 0 -0.630825 0.00134829 -0.0301227 -0.630823 -3.65283e-05 2.40647e-05 
110 108 0 3.20083 -4.45746 0.39781 2.74021 -4.73131 0.276988 
110 111 0 -2.79722 -3.88191 0.192602 -2.38424 -4.11819 0.24084 
72 113 0 -2.63096 -4.02149 -0.122164 -2.40117 -4.14749 -0.242474 
72 73 0 -0.717671 -0.0154398 -0.00631704 -0.717672 -2.1215e-05 -1.79421e-05 
73 113 0 2.78897 -4.28839 -0.323569 2.56118 -4.42407 -0.258525 
73 114 0 -2.68663 -3.91905 -0.16176 -2.37183 -4.09677 -0.239307 
73 76 0 -0.591709 0.0151354 0.0387033 -0.591707 -2.30365e-05 -1.90834e-05 
113 114 0 -0.684248 -0.0017555 -0.0166075 -0.684248 -2.50221e-05 1.18547e-05 
113 111 0 2.91776 -4.34798 0.289958 2.61848 -4.52275 0.264318 
113 112 0 -2.69749 -3.96081 0.157784 -2.39248 -4.13251 0.241328 
114 76 0 -2.92018 4.14691 0.244299 -2.53096 4.37161 0.255209 
114 117 0 -0.567697 0.0142184 -0.027383 -0.567697 -1.36517e-05 -7.82241e-06 
114 112 0 2.90481 -4.22506 0.204227 2.55982 -4.42163 0.258135 
114 115 0 -2.78111 -3.85809 0.204902 -2.37027 -4.09395 0.23921 
76 117 0 -2.78967 -3.94481 -0.0945019 -2.40713 -4.15762 -0.242776 
76 77 0 -0.616276 -0.0208911 -0.016463 -0.616276 -2.31216e-06 2.06503e-05 
77 117 0 2.83316 -4.08765 -0.344493 2.48596 -4.29412 -0.250915 
117 115 0 2.8873 -4.09669 0.310767 2.50264 -4.32278 0.252657 
117 116 0 -2.73612 -3.91568 0.129592 -2.38191 -4.11427 0.240406 
79 119 0 -3.5753 -4.94633 -0.355661 -3.04662 -5.25562 -0.307421 
119 81 0 -4.25296 5.8993 0.312955 -3.62622 6.25925 0.366657 
119 122 0 -0.793726 0.0222584 -0.0293305 -0.793715 -0.000348178 2.97817e-05 
119 118 0 4.4106 -6.80675 0.33708 4.06305 -7.00417 0.408981 
119 120 0 -2.92474 -4.06409 0.333677 -2.49683 -4.31638 0.252416 
81 82 0 -0.972445 -0.0327837 0.0601908 -0.972451 -0.00019296 -3.5784e-06 
81 122 0 -3.09622 -4.29748 -0.293654 -2.64076 -4.56266 -0.26694 
82 122 0 3.11475 -4.95269 -0.198316 2.92766 -5.05533 -0.29581 
82 123 0 -2.69638 -4.50648 -0.36059 -2.63252 -4.54897 -0.266115 
82 85 0 -1.32784 -0.0156961 0.0452633 -1.32784 -0.000128995 3.02294e-05 
122 123 0 -1.15292 -0.0557748 0.05145 -1.15293 -0.000260813 -1.02965e-06 
122 120 0 3.05995 -4.63801 0.247867 2.78028 -4.79815 0.280524 
122 121 0 -2.67169 -4.53562 0.24092 -2.63512 -4.55529 0.266283 
123 85 0 -2.70488 4.41432 0.216476 -2.59211 4.47695 0.26205 
123 126 0 -0.469196 0.0221964 -0.0426248 -0.469199 4.55232e-05 -1.22541e-05 
123 121 0 2.60657 -4.01166 0.205907 2.39387 -4.13278 0.241652 
123 124 0 -3.27126 -4.98835 0.37761 -2.98652 -5.15767 0.301691 
85 86 0 -0.226458 0.022437 0.00612927 -0.226458 1.65229e-06 -7.88798e-06 
85 126 0 -3.30546 -4.60211 -0.406707 -2.82894 -4.88512 -0.286121 
86 126 0 3.13219 -4.45772 -0.205556 2.7182 -4.69343 -0.274702 
86 128 0 -3.17639 -4.76773 -0.330505 -2.86572 -4.94996 -0.290023 
86 88 0 -0.260762 -0.00650007 0.0255067 -0.260765 -2.20572e-05 2.0796e-05 
126 128 0 -0.538587 -0.0287523 -0.0271151 -0.53859 -2.2389e-05 -3.01014e-05 
126 124 0 2.64325 -4.35929 0.152675 2.5515 -4.40626 0.257843 
126 125 0 -2.73323 -4.65289 0.458713 -2.70827 -4.67815 0.274426 
128 88 0 -3.08073 4.33615 0.469272 -2.65989 4.59166 0.26948 
128 130 0 -0.230039 -0.0230348 -0.000121935 -0.230042 -3.10352e-05 1.4607e-05 
128 125 0 2.60864 -4.40367 0.445364 2.5696 -4.43713 0.260587 
128 127 0 -2.99679 -4.70871 0.358471 -2.79575 -4.82951 0.283125 
88 90 0 -0.676373 0.018432 0.0298624 -0.676369 -3.53039e-05 -6.19612e-05 
88 130 0 -2.91369 -4.49799 -0.333584 -2.68329 -4.63501 -0.271641 
90 130 0 2.78356 -4.59676 -0.255571 2.69197 -4.64884 -0.271975 
90 92 0 -0.189864 0.0105724 0.00364142 -0.189864 7.14405e-06 -7.08611e-06 
90 132 0 -3.10535 -4.82127 -0.220995 -2.86917 -4.95405 -0.28957 
130 132 0 -0.263794 9.68794e-05 0.00551172 -0.263794 1.98225e-05 1.31569e-05 
130 127 0 3.13541 -4.34685 0.277121 2.67354 -4.61483 0.270242 
130 129 0 -3.22007 -4.77301 0.315702 -2.87951 -4.97171 0.290967 
92 132 0 3.05665 -4.62259 -0.226275 2.77104 -4.78489 -0.279463 
92 134 0 -3.08423 -4.71837 -0.161096 -2.81781 -4.86547 -0.284137 
92 94 0 -0.270973 0.00700725 0.0212243 -0.270975 7.43916e-06 1.43339e-05 
94 134 0 2.95803 -4.73271 -0.256726 2.79457 -4.82588 -0.282111 
94 96 0 -0.414418 -0.00967313 0.0125824 -0.414419 -3.32372e-05 7.44117e-06 
94 136 0 -2.81709 -4.56044 -0.277431 -2.68501 -4.63726 -0.271401 
132 134 0 -0.189526 -0.00868498 -0.0168423 -0.189526 3.56706e-06 1.32475e-06 
132 129 0 2.91283 -4.68608 0.221195 2.7621 -4.76999 0.278861 
132 131 0 -3.0272 -4.75054 0.227714 -2.81921 -4.86768 0.284518 
134 136 0 -0.483471 -0.0154036 -0.0211734 -0.483473 -2.43063e-05 -2.98685e-05 
134 131 0 3.00351 -4.78268 0.242694 2.82735 -4.88221 0.285321 
134 133 0 -2.82753 -4.66296 0.176383 -2.72956 -4.7139 0.275427 
96 136 0 3.09607 -4.73931 -0.322577 2.83382 -4.89329 -0.286514 
96 138 0 -2.98119 -4.44358 -0.270553 -2.67564 -4.62051 -0.270605 
96 98 0 -0.311082 0.00927164 0.00274158 -0.311082 -1.50399e-05 8.83879e-06 
98 138 0 3.2168 -4.64752 -0.385337 2.82589 -4.87973 -0.285963 
98 100 0 -0.192049 0.0189942 -0.00447264 -0.192048 -3.73536e-06 -3.67863e-06 
98 140 0 -3.14416 -4.35905 -0.305559 -2.68101 -4.62928 -0.271318 
136 138 0 -0.281649 -0.000120316 -0.00474018 -0.281649 -1.53636e-05 -4.22657e-06 
136 133 0 3.04235 -4.9022 0.300636 2.89007 -4.99088 0.291985 
136 135 0 -2.95318 -4.41498 0.302929 -2.65721 -4.58838 0.26882 
138 140 0 -0.210709 0.0214957 0.00100262 -0.210708 -4.65879e-06 -1.5123e-06 
138 135 0 3.29514 -4.79117 0.393695 2.90783 -5.02129 0.294289 
138 137 0 -3.1189 -4.32241 0.266177 -2.65786 -4.58926 0.268858 
100 140 0 3.23934 -4.58677 -0.393372 2.80549 -4.84443 -0.283827 
100 103 0 -0.456785 0.0321189 0.0242258 -0.456783 -2.20854e-05 2.19206e-07 
100 141 0 -2.98254 -4.38074 -0.249788 -2.64799 -4.57339 -0.267836 
103 141 0 3.05077 -4.50776 -0.3629 2.72318 -4.70259 -0.27542 
103 104 0 -0.421919 0.0421902 0.00349547 -0.421916 -3.07968e-05 -5.21318e-06 
103 144 0 -2.95412 -4.3667 -0.257149 -2.63486 -4.55099 -0.26658 
140 141 0 -0.424502 0.030027 -0.0294305 -0.424499 -3.46334e-05 6.86269e-06 
140 137 0 3.1855 -4.67719 0.391656 2.83099 -4.88865 0.286445 
140 139 0 -2.86159 -4.2809 0.310701 -2.57598 -4.44919 0.260716 
141 144 0 -0.525306 0.0501367 0.00182917 -0.525303 -3.37257e-05 -5.84421e-06 
141 139 0 3.00313 -4.52628 0.355388 2.71915 -4.69544 0.275084 
141 142 0 -2.82167 -4.38446 0.261155 -2.60943 -4.50717 0.26399 
104 144 0 3.07098 -4.42138 -0.419398 2.69246 -4.6492 -0.272289 
104 145 0 -2.93539 -4.32554 -0.169738 -2.61 -4.5084 -0.263843 
104 107 0 -0.479058 0.0456094 0.00366235 -0.479054 -4.68967e-05 -7.94747e-06 
144 145 0 -0.500102 0.0468684 -0.0180447 -0.500097 -4.90269e-05 1.63355e-05 
144 142 0 2.93367 -4.45947 0.417184 2.67433 -4.61824 0.270575 
144 143 0 -2.8289 -4.32753 0.262228 -2.58654 -4.46786 0.261727 
145 107 0 -3.0878 4.40692 0.368631 -2.68917 4.64345 0.271688 
145 148 0 -0.412771 0.0355822 0.0215252 -0.412767 -4.15732e-05 1.06512e-06 
145 143 0 3.04888 -4.43452 0.380081 2.6916 -4.64775 0.27212 
145 146 0 -2.97279 -4.28857 0.160122 -2.60312 -4.49655 0.26317 
107 148 0 -2.96771 -4.20791 -0.16793 -2.56726 -4.4344 -0.259413 
107 108 0 -0.424995 0.0421524 0.00713326 -0.424991 -4.22699e-05 9.8696e-06 
108 148 0 3.07288 -4.41252 -0.395287 2.68851 -4.64235 -0.271734 
108 149 0 -2.89618 -4.01598 -0.209676 -2.46737 -4.26191 -0.249363 
108 111 0 -0.277397 -0.0255788 -0.000435556 -0.277402 -4.66088e-05 -1.20029e-05 
148 149 0 -0.397635 0.0392098 -0.00629906 -0.39763 -5.03375e-05 5.27068e-06 
148 146 0 3.05299 -4.31241 0.422237 2.64102 -4.56009 0.266906 
148 147 0 -2.95214 -4.31398 0.143463 -2.60844 -4.50593 0.263422 
149 111 0 -3.22621 4.47283 0.295224 -2.75077 4.74923 0.277692 
149 152 0 -0.198218 -0.00275826 0.00100065 -0.198219 -4.0893e-05 1.03829e-05 
149 147 0 3.08298 -4.36816 0.290182 2.66944 -4.6089 0.26941 
149 150 0 -2.94396 -4.08038 0.21413 -2.5072 -4.33094 0.253076 
111 152 0 -2.71775 -3.77071 -0.190356 -2.31617 -4.00067 -0.233625 
111 112 0 -0.655652 -0.0135841 0.0256384 -0.655652 -4.16145e-05 -2.26885e-05 
112 152 0 2.9015 -4.31676 -0.172336 2.59785 -4.48732 -0.261883 
112 153 0 -2.72639 -3.87558 -0.191974 -2.36374 -4.08282 -0.238468 
112 115 0 -0.616241 -0.00885035 0.0129004 -0.616241 -1.92631e-05 2.78296e-05 
152 153 0 -0.678143 -0.000967468 -0.0198819 -0.678144 -3.42224e-05 -2.95741e-05 
152 150 0 3.24699 -4.51621 0.185998 2.77232 -4.78573 0.279427 
152 151 0 -2.57617 -3.57489 0.178881 -2.19574 -3.79265 0.22143 
153 115 0 -2.86439 4.09027 0.270826 -2.49311 4.30634 0.251758 
153 156 0 -0.684814 -0.0254761 0.0153834 -0.684815 -2.68299e-05 -1.03936e-05 
153 151 0 2.77431 -4.14329 0.277098 2.49342 -4.30737 0.251713 
153 154 0 -2.62029 -3.80043 0.187251 -2.30446 -3.98061 0.232753 
115 156 0 -2.72215 -3.87332 -0.248489 -2.36303 -4.08179 -0.238691 
115 116 0 -0.641377 -0.00312364 0.0402743 -0.641376 -2.07483e-05 -7.41193e-06 
116 156 0 2.81446 -4.0205 -0.277917 2.45064 -4.23292 -0.247481 
156 154 0 2.83033 -4.04758 0.319784 2.46727 -4.26188 0.249286 
156 155 0 -2.77875 -3.85446 0.210183 -2.36808 -4.0905 0.239288 
118 158 0 -4.32081 -6.77828 0.060655 -4.01205 -6.95636 0.00067237 
118 120 0 -0.0727815 0.00696134 -0.00102943 -0.0727746 -6.99133e-05 9.58509e-06 
158 120 0 -3.39307 4.91138 -0.0610137 -2.98535 5.14783 0.000286557 
158 157 0 3.36487 -5.17881 -0.386117 3.08528 -5.34454 -0.311662 
158 159 0 -4.287 -6.51015 -0.0604327 -3.9068 -6.73096 -0.0248803 
120 121 0 -0.822332 0.0573937 0.0443364 -0.82231 -0.000328036 1.26752e-05 
120 161 0 -2.49659 -3.84449 -0.359438 -2.29509 -3.96848 -0.231793 
121 161 0 2.66978 -3.7232 -0.124167 2.28337 -3.94088 -0.230357 
121 162 0 -3.44215 -4.77011 -0.320769 -2.93387 -5.06593 -0.295846 
121 124 0 -0.108027 0.00357566 0.0106562 -0.108027 7.74359e-06 1.56652e-06 
161 159 0 2.1557 -4.15374 0.120418 2.33682 -4.04358 0.220935 
161 160 0 -1.97311 -3.41532 0.349003 -1.98121 -3.41935 0.1996 
162 124 0 -2.7481 4.3713 0.123705 -2.58261 4.45916 0.260464 
162 165 0 -0.447475 -0.00864977 0.0412327 -0.447472 -9.37972e-06 -4.22028e-05 
162 160 0 2.85778 -3.96859 0.19893 2.43706 -4.20946 0.245461 
162 163 0 -3.09569 -5.1662 -0.0221837 -3.01325 -5.21348 0.0341537 
124 125 0 -0.627934 -0.0307242 0.0557444 -0.627941 -6.19562e-06 7.83017e-05 
124 165 0 -2.84621 -4.94442 -0.406351 -2.86134 -4.94252 -0.289231 
125 165 0 2.53135 -4.53227 -0.436814 2.6056 -4.4994 -0.263953 
125 167 0 -2.62704 -4.50909 -0.46933 -2.6198 -4.52525 -0.265355 
125 127 0 -0.638161 -0.0483675 -0.0254235 -0.638165 -2.05455e-05 -5.65214e-05 
165 167 0 -0.511551 -0.0379337 0.0177784 -0.511554 -3.13707e-05 9.31695e-06 
165 163 0 2.98219 -4.49742 0.273155 2.69687 -4.66402 0.0310635 
165 164 0 -3.22086 -4.95227 0.144699 -2.95245 -5.10826 0.10087 
167 127 0 -2.62194 4.48029 0.286033 -2.60179 4.49331 0.263031 
167 169 0 -0.141569 -0.000460576 -0.000562847 -0.141569 1.61332e-05 7.60775e-06 
167 164 0 3.04698 -4.24753 0.138495 2.60501 -4.50412 0.0888516 
167 166 0 -3.41539 -4.77872 0.243592 -2.92819 -5.06291 0.0701592 
127 169 0 -3.1092 -4.62584 -0.354354 -2.78923 -4.81543 -0.281625 
129 169 0 3.23035 -4.48309 -0.228462 2.75486 -4.75564 -0.277968 
129 131 0 -0.255985 -0.0190572 0.0170722 -0.255984 1.38306e-05 -3.2888e-06 
129 171 0 -3.27119 -4.95874 -0.309116 -2.97253 -5.13226 -0.299976 
169 171 0 -0.00614622 -0.000583784 -0.000191945 -0.00614622 9.27071e-08 1.14048e-08 
169 166 0 3.14069 -4.72764 0.0233258 2.83496 -4.90378 0.0676404 
169 168 0 -3.14723 -4.38249 0.181923 -2.68934 -4.64914 0.0936816 
131 171 0 3.09575 -4.85895 -0.259519 2.88382 -4.97984 -0.290975 
131 173 0 -2.99957 -4.66294 -0.212109 -2.77377 -4.78975 -0.279795 
131 133 0 -0.366244 -0.0321827 -0.0175971 -0.366246 -1.80652e-05 -2.87658e-06 
133 173 0 3.19347 -5.06907 -0.316839 3.00063 -5.18158 -0.302654 
133 135 0 -0.323295 -0.0304413 0.00938553 -0.323297 -1.12951e-05 2.3985e-05 
133 175 0 -3.01244 -4.49936 -0.161651 -2.70513 -4.67085 -0.272875 
171 173 0 -0.318233 0.000900793 -0.00201574 -0.318233 -7.51617e-06 3.74114e-06 
171 168 0 3.24479 -4.93374 0.0883936 2.95101 -5.10333 0.102821 
171 170 0 -3.10046 -4.88675 0.122573 -2.89483 -5.00578 0.117943 
173 175 0 -0.259873 -0.0161572 0.00193131 -0.259873 -1.27072e-05 -3.27106e-06 
173 170 0 3.33492 -4.96084 0.148842 2.98595 -5.16329 0.121587 
173 172 0 -3.19239 -4.75548 0.0295095 -2.86015 -4.94606 0.103409 
135 175 0 3.28187 -4.97231 -0.403261 2.98295 -5.15137 -0.301403 
135 177 0 -3.02022 -4.28882 -0.298982 -2.61932 -4.52298 -0.264869 