ITEM: TIMESTEP
50000
ITEM: NUMBER OF ENTRIES
2400
ITEM: BOX BOUNDS ff ff ff
-0.045 0.045
-0.025 0.025
0 0.003
ITEM: ENTRIES c_q[13] c_q[14] c_q[15] c_q[16] c_q[17] c_q[18] c_q[19] c_q[20] c_q[21] 
2 1 0 3.04675 -4.34386 0.298467 2.64839 -4.57624 0.266855 
2 3 0 -3.05201 -4.11455 0.2823 -2.55378 -4.40486 0.257496 
5 3 0 3.08639 -4.41399 0.316241 2.69241 -4.64497 0.271582 
5 4 0 -3.05121 -4.29588 0.293081 -2.63147 -4.54075 0.265372 
6 4 0 3.19291 -4.59437 0.268497 2.79507 -4.8241 0.281812 
6 7 0 -3.1241 -4.32115 0.285863 -2.66043 -4.59088 0.26825 
9 11 0 -0.232272 0.0149518 -0.00940013 -0.232272 -6.62776e-06 -6.626e-06 
9 7 0 3.25479 -5.18055 0.286799 3.06373 -5.28991 0.308973 
9 8 0 -2.91729 -4.43723 0.253194 -2.65651 -4.58739 0.267888 
11 13 0 -0.224432 0.00872292 0.0357269 -0.224432 -8.62204e-08 1.86786e-07 
11 8 0 2.91362 -4.63074 0.307407 2.74073 -4.73267 0.276538 
11 10 0 -2.8326 -4.37227 0.271866 -2.60771 -4.50301 0.263123 
13 15 0 -0.0736392 0.00589586 -0.0331816 -0.0736388 2.16579e-07 9.19141e-07 
13 10 0 2.8119 -4.48732 0.31857 2.65337 -4.58209 0.267739 
13 12 0 -2.8928 -4.51134 0.283781 -2.68357 -4.63329 0.27067 
15 17 0 -0.0766435 0.00178122 -0.00745605 -0.0766437 1.05423e-06 -1.28773e-06 
15 12 0 2.92233 -4.68752 0.249083 2.7661 -4.77626 0.278952 
15 14 0 -2.83892 -4.37055 0.291104 -2.60947 -4.50508 0.263206 
17 19 0 -0.161689 0.0141133 -0.00787478 -0.161688 -7.11188e-06 2.04958e-06 
17 14 0 2.6237 -4.88726 0.305837 2.77893 -4.79885 0.280458 
17 16 0 -2.4579 -4.47743 0.303169 -2.55978 -4.42107 0.258318 
19 21 0 -0.0280461 -0.00357978 -0.0867298 -0.0280419 8.09215e-07 1.31886e-06 
19 16 0 2.54487 -4.22955 0.261993 2.47388 -4.2714 0.249524 
19 18 0 -2.60335 -4.20926 0.283016 -2.48058 -4.2823 0.250042 
21 23 0 -0.125949 -0.000874265 -0.0125699 -0.12595 1.8382e-07 -5.32648e-06 
21 18 0 2.66908 -4.6897 0.214638 2.70242 -4.66703 0.272243 
21 20 0 -2.52762 -4.34153 0.228311 -2.5172 -4.3461 0.253575 
23 24 0 -0.198461 0.0142472 0.0175146 -0.198461 -2.64356e-06 -1.17042e-06 
23 20 0 2.58294 -4.76451 0.290976 2.71513 -4.68896 0.273809 
23 22 0 -2.41641 -4.31811 0.249634 -2.47937 -4.28163 0.250101 
24 27 0 -0.0729535 -9.17703e-05 0.0227418 -0.0729533 -1.63289e-06 -5.41075e-07 
24 22 0 2.47615 -4.41592 0.304819 2.53802 -4.38295 0.256053 
24 25 0 -2.52138 -4.36576 0.259426 -2.52652 -4.36305 0.254826 
27 25 0 2.67069 -4.18409 0.289833 2.48639 -4.29311 0.250784 
27 26 0 -2.70163 -4.15898 0.282321 -2.48361 -4.28714 0.250523 
28 31 0 -0.158607 0.015474 0.00697178 -0.158607 -1.07321e-06 6.82556e-06 
28 26 0 2.85088 -4.45521 0.306039 2.64935 -4.5742 0.267289 
28 29 0 -2.62688 -3.97907 0.257274 -2.38579 -4.11966 0.24058 
31 32 0 -0.269059 0.0244658 0.00980154 -0.269058 7.48164e-07 -5.63603e-06 
31 29 0 2.72427 -4.35188 0.253763 2.57104 -4.4403 0.259086 
31 30 0 -2.53247 -3.94454 0.192612 -2.34548 -4.05028 0.23629 
32 35 0 -0.313496 0.0219959 0.00645605 -0.313496 -3.66018e-06 8.10659e-06 
32 30 0 2.56972 -4.32 0.280454 2.51902 -4.3509 0.253933 
32 33 0 -2.43798 -4.02088 0.225774 -2.35546 -4.06797 0.237379 
35 36 0 -0.359935 0.0206888 0.000654379 -0.359935 -1.86493e-06 -6.23873e-06 
35 33 0 2.56892 -4.18228 0.228553 2.45804 -4.24537 0.247607 
35 34 0 -2.4519 -3.92319 0.204443 -2.31612 -4.00012 0.233312 
36 39 0 -0.342324 0.0177922 0.0210981 -0.342324 -9.03348e-07 2.83508e-06 
36 34 0 2.52923 -4.09635 0.256347 2.41153 -4.16527 0.24303 
36 37 0 -2.46717 -3.90794 0.205166 -2.31338 -3.99536 0.233038 
39 37 0 2.55055 -4.07091 0.250533 2.40572 -4.15523 0.242324 
39 38 0 -2.48133 -3.89098 0.212625 -2.30978 -3.98914 0.232653 
1 41 0 -3.16331 -4.40986 -0.30485 -2.70999 -4.67452 -0.273275 
41 3 0 -3.02493 4.31833 0.329253 -2.63288 4.54893 0.266361 
41 44 0 -0.0119446 0.00012511 -0.00118784 -0.0119446 3.32398e-06 3.97489e-07 
41 40 0 2.96274 -4.19307 0.342582 2.56653 -4.42763 0.258967 
41 42 0 -3.08166 -4.5374 0.292963 -2.74393 -4.73408 0.277188 
3 44 0 -2.93235 -4.25698 -0.278879 -2.58462 -4.45955 -0.26104 
4 44 0 3.22143 -4.53056 -0.26026 2.77518 -4.78804 -0.280183 
4 45 0 -3.0905 -4.35641 -0.298133 -2.66773 -4.60311 -0.269432 
44 42 0 3.07587 -4.73705 0.255007 2.82494 -4.88051 0.285481 
44 43 0 -2.8139 -4.05224 0.284624 -2.4667 -4.25558 0.249054 
45 7 0 -3.25483 4.77764 0.283178 -2.89018 4.98839 0.292044 
45 48 0 -0.19578 0.0202095 -0.0252663 -0.195776 -3.96964e-05 -3.75536e-06 
45 43 0 3.16574 -4.80307 0.286811 2.87938 -4.96878 0.2909 
45 46 0 -2.81149 -4.35922 0.309566 -2.59716 -4.48605 0.262616 
7 8 0 -0.249579 -0.0092548 0.0217487 -0.24958 -3.10911e-05 -6.17224e-07 
7 48 0 -2.87427 -4.73113 -0.315387 -2.77376 -4.79136 -0.28055 
8 48 0 3.04182 -4.41716 -0.319835 2.68146 -4.62877 -0.271056 
8 50 0 -3.08574 -4.65917 -0.249874 -2.79428 -4.82601 -0.282485 
8 10 0 -0.198926 -0.00909299 -0.0288076 -0.198926 -6.85182e-06 5.50154e-07 
48 50 0 -0.113621 0.0109629 -0.00294761 -0.11362 -9.5702e-06 1.8802e-06 
48 46 0 2.91554 -4.93166 0.310643 2.87218 -4.95797 0.29042 
48 47 0 -2.8239 -4.22411 0.338802 -2.54279 -4.39165 0.257307 
50 10 0 -2.94931 4.28696 0.333296 -2.60201 4.49224 0.262974 
50 52 0 -0.00526772 0.00433657 -0.0356694 -0.00526651 8.87321e-08 1.89264e-07 
50 47 0 2.72854 -4.31964 0.339594 2.56099 -4.42141 0.258992 
50 49 0 -2.97053 -4.62424 0.255584 -2.75107 -4.75004 0.277834 
10 12 0 -0.116655 -0.00249263 0.0442045 -0.116654 5.98616e-06 -1.66377e-06 
10 52 0 -3.04278 -4.58129 -0.266211 -2.75089 -4.74967 -0.277851 
12 52 0 2.81264 -4.4684 -0.212522 2.64281 -4.56357 -0.266873 
12 14 0 -0.0224424 -0.00278897 0.0258498 -0.0224429 -3.59455e-08 3.93478e-07 
12 54 0 -2.88827 -4.7212 -0.309846 -2.7736 -4.78934 -0.280361 
52 54 0 -0.201046 0.0019124 -0.0200241 -0.201047 7.49735e-06 -9.89982e-06 
52 49 0 2.85776 -4.33861 0.185998 2.59771 -4.48479 0.262128 
52 51 0 -2.902 -4.70319 0.286057 -2.76859 -4.78081 0.27971 
14 54 0 2.69177 -4.38175 -0.322391 2.57829 -4.4511 -0.260652 
14 56 0 -2.48566 -4.83296 -0.273242 -2.71924 -4.69766 -0.274857 
14 16 0 -0.435831 -0.0413579 0.0138578 -0.435835 -3.72132e-05 -2.97626e-06 
16 56 0 2.56943 -4.31804 -0.238732 2.51784 -4.34701 -0.254332 
16 58 0 -2.91072 -4.42746 -0.327253 -2.65326 -4.58007 -0.268004 
54 56 0 -0.390814 0.0364027 -0.0140873 -0.390809 -4.54329e-05 1.40907e-05 
54 51 0 2.49465 -4.52767 0.310436 2.59128 -4.47455 0.262036 
54 53 0 -2.49354 -4.60461 0.321328 -2.62385 -4.53246 0.265249 
56 53 0 2.6898 -4.5853 0.210179 2.66283 -4.59749 0.268899 
56 55 0 -2.99237 -4.52219 0.294575 -2.7141 -4.68461 0.273972 
18 58 0 2.94963 -4.41203 -0.20636 2.65296 -4.58027 -0.267867 
18 60 0 -2.77769 -4.48143 -0.291641 -2.64182 -4.56157 -0.266792 
18 20 0 -0.117579 0.00136859 0.10995 -0.117581 8.33203e-07 1.18614e-06 
20 60 0 2.66773 -4.5904 -0.262203 2.66055 -4.59417 -0.26875 
20 22 0 -0.293339 -0.00888503 0.027966 -0.29334 -1.41558e-05 5.48056e-06 
20 62 0 -2.44464 -4.51544 -0.271476 -2.57204 -4.44235 -0.259954 
58 60 0 -0.0149972 -1.48293e-05 -0.00149973 -0.0149972 -4.23029e-07 -7.69347e-08 
58 55 0 2.93519 -4.49427 0.202164 2.68476 -4.63529 0.27108 
58 57 0 -2.89313 -4.33838 0.329623 -2.60991 -4.50627 0.263684 
60 62 0 -0.361656 0.0045942 -0.0358768 -0.361656 -2.54406e-05 -7.46478e-06 
60 57 0 2.80242 -4.59581 0.25837 2.69681 -4.65615 0.272491 
60 59 0 -2.55854 -4.48445 0.303007 -2.58791 -4.46987 0.261594 
22 62 0 2.56383 -4.37357 -0.308316 2.54194 -4.38925 -0.256956 
22 63 0 -2.57866 -4.37547 -0.255278 -2.54504 -4.39483 -0.257196 
22 25 0 -0.212097 -0.000592897 -0.0212041 -0.212097 -3.18085e-07 -2.72277e-06 
62 63 0 -0.106975 0.000851363 0.0106653 -0.106975 -1.169e-06 1.74942e-06 
62 59 0 2.68699 -4.50291 0.283588 2.62812 -4.53806 0.265715 
62 61 0 -2.81599 -4.3902 0.307597 -2.61231 -4.51071 0.264136 
63 25 0 -2.67872 4.4501 0.303678 -2.6035 4.49603 0.263052 
63 61 0 2.88826 -4.46428 0.315439 2.66265 -4.59765 0.269143 
63 64 0 -2.88731 -4.3646 0.246843 -2.61826 -4.51943 0.264514 
25 66 0 -2.73338 -4.10222 -0.247225 -2.46633 -4.25683 -0.249093 
26 66 0 2.77138 -4.42849 -0.316393 2.61788 -4.52041 -0.264574 
26 67 0 -2.60627 -4.18145 -0.269489 -2.46831 -4.26252 -0.249405 
26 29 0 -0.00482944 -6.02723e-05 0.0004791 -0.00482943 -4.48186e-07 -1.23124e-07 
66 67 0 -0.144651 0.0011169 0.00462738 -0.144651 -8.08463e-06 1.69159e-06 
66 64 0 2.81333 -4.29847 0.336824 2.57272 -4.44231 0.259987 
66 65 0 -2.62044 -4.22733 0.223223 -2.49047 -4.30093 0.251578 
67 29 0 -2.80236 4.31774 0.256812 -2.57668 4.44827 0.260171 
67 70 0 -0.00508169 7.49471e-05 -0.000502555 -0.00508168 -6.43177e-07 -4.0295e-08 
67 65 0 2.7152 -4.40695 0.267144 2.5933 -4.47785 0.261883 
67 68 0 -2.64856 -4.09402 0.265538 -2.44094 -4.21535 0.246633 
29 70 0 -2.50793 -4.0138 -0.258794 -2.37082 -4.09432 -0.239472 
29 30 0 -0.191534 -0.000516579 0.0182718 -0.191534 -6.02924e-06 -1.22421e-06 
30 70 0 2.61561 -4.2099 -0.289156 2.48341 -4.28869 -0.250818 
30 71 0 -2.36761 -4.01719 -0.184298 -2.33513 -4.03299 -0.235699 
30 33 0 -0.391669 -0.0370207 -0.00617843 -0.391669 -7.10642e-06 -2.98336e-06 
70 71 0 -0.246012 0.0238412 -0.000655574 -0.24601 -1.43969e-05 7.8362e-06 
70 68 0 2.86032 -4.40545 0.314923 2.63068 -4.54135 0.265788 
70 69 0 -2.50082 -3.84463 0.241692 -2.29536 -3.96417 0.231882 
71 33 0 -2.45835 4.24957 0.260338 -2.46018 4.24922 0.248303 
71 74 0 -0.403361 0.00767299 0.0128782 -0.40336 -8.99668e-06 -8.91576e-06 
71 69 0 2.63178 -4.27838 0.291188 2.51707 -4.34697 0.254131 
71 72 0 -2.37397 -3.97192 0.15664 -2.31641 -4.00073 0.233865 
33 74 0 -2.38877 -3.98582 -0.196831 -2.32715 -4.01927 -0.234963 
33 34 0 -0.319761 -0.00222553 -0.0177911 -0.319761 -8.84073e-06 1.10651e-06 
34 74 0 2.558 -4.09965 -0.321865 2.42196 -4.18294 -0.244555 
34 75 0 -2.44067 -3.91883 -0.146738 -2.30993 -3.98948 -0.23307 
34 37 0 -0.351101 -0.00654087 -0.033424 -0.351101 -1.50889e-06 -5.79826e-06 
74 75 0 -0.299667 0.00615495 0.00936042 -0.299667 -9.33251e-06 1.07762e-05 
74 72 0 2.47694 -4.18371 0.352668 2.43867 -4.21209 0.246333 
74 73 0 -2.40169 -3.90287 0.174038 -2.29394 -3.96189 0.231597 
75 37 0 -2.5023 4.04522 0.253312 -2.38262 4.11527 0.240342 
75 78 0 -0.367862 5.59908e-05 0.0238922 -0.367863 -2.14625e-06 4.14801e-06 
75 73 0 2.57937 -4.07457 0.291123 2.41569 -4.17212 0.243721 
75 76 0 -2.45181 -3.88647 0.116727 -2.29799 -3.96883 0.231671 
37 78 0 -2.42915 -3.94567 -0.200579 -2.32 -4.00692 -0.23396 
37 38 0 -0.339185 0.0106987 0.0309603 -0.339185 -1.18586e-06 1.21151e-06 
38 78 0 2.53355 -3.97881 -0.187109 2.36008 -4.07627 -0.238027 
78 76 0 2.53087 -4.078 0.213938 2.40291 -4.15043 0.242219 
78 77 0 -2.47536 -3.85495 0.176246 -2.29185 -3.958 0.231157 
40 80 0 -2.92897 -4.17841 -0.348907 -2.55214 -4.40222 -0.257448 
80 42 0 -3.10548 4.52987 0.266027 -2.74567 4.73773 0.277348 
80 79 0 2.51276 -4.49542 0.285265 2.58291 -4.45621 0.260452 
80 81 0 -2.32943 -4.22396 0.341696 -2.42105 -4.17654 0.24463 
42 83 0 -3.10833 -4.73832 -0.275549 -2.83681 -4.89503 -0.286455 
43 83 0 2.89425 -4.65744 -0.290547 2.74658 -4.7437 -0.2776 
43 84 0 -2.55276 -4.21073 -0.29292 -2.46766 -4.26254 -0.249527 
43 46 0 -0.000581191 -4.05985e-06 5.79949e-05 -0.000581192 -1.58749e-07 6.71153e-09 
83 84 0 -0.74791 0.018802 -0.0443468 -0.747909 -7.17904e-05 -1.69894e-05 
83 81 0 2.85109 -5.01002 0.300065 2.88972 -4.9881 0.292049 
83 82 0 -2.31336 -4.40852 0.270447 -2.49233 -4.30602 0.251865 
84 46 0 -2.97555 4.62303 0.316719 -2.75442 4.75341 0.278414 
84 87 0 -0.229791 0.00580903 -0.0222196 -0.22979 -6.06216e-05 -2.96871e-06 
84 82 0 2.20184 -4.46622 0.233778 2.48924 -4.29876 0.251582 
84 85 0 -2.29506 -4.36555 0.382043 -2.47182 -4.27097 0.250195 
46 47 0 -0.0946031 0.00246781 0.00913004 -0.0946029 -1.79321e-05 2.16795e-06 
46 87 0 -2.77392 -4.68191 -0.310842 -2.72673 -4.71126 -0.275931 
47 87 0 2.70805 -3.98563 -0.338612 2.41218 -4.16263 -0.243963 
47 89 0 -2.88798 -4.56577 -0.355485 -2.70778 -4.67493 -0.273753 
47 49 0 -0.00648696 1.47751e-05 0.000648037 -0.00648691 1.44095e-07 -4.88632e-07 
87 85 0 2.69557 -4.36288 0.31572 2.57138 -4.43809 0.260131 
87 86 0 -2.99457 -4.313 0.346894 -2.6255 -4.53161 0.265307 
89 49 0 -2.93148 4.45413 0.174237 -2.66573 4.6025 0.269103 
89 91 0 -0.0717195 0.000792101 -0.106671 -0.0717236 -9.18033e-07 -2.70433e-06 
89 86 0 2.8911 -4.68753 0.166425 2.75704 -4.75865 0.278379 
89 88 0 -2.78908 -4.32701 0.362115 -2.57933 -4.4544 0.260916 
49 51 0 -0.0507091 -0.00229855 0.0556132 -0.0507119 -1.07265e-07 2.57638e-06 
49 91 0 -3.01176 -4.50221 -0.265551 -2.7087 -4.67724 -0.273673 
51 91 0 2.65991 -4.43251 -0.362455 2.59311 -4.47707 -0.262225 
51 53 0 -0.523976 -0.0458543 -0.028186 -0.52398 -3.80475e-05 -1.55572e-05 
51 93 0 -2.58763 -4.74613 -0.229349 -2.70628 -4.67487 -0.273394 
91 93 0 -0.389882 0.00138282 0.0389907 -0.389884 -3.39537e-05 2.79937e-05 
91 88 0 2.43295 -4.1695 0.415427 2.42377 -4.18478 0.24531 
91 90 0 -2.45971 -4.75949 0.210723 -2.67952 -4.62873 0.270842 
53 93 0 2.65319 -4.55878 -0.221359 2.64229 -4.56244 -0.266684 
53 95 0 -2.9769 -4.66877 -0.307767 -2.77388 -4.78802 -0.280034 
55 95 0 2.86573 -4.41866 -0.19928 2.63466 -4.5486 -0.265962 
55 57 0 -0.00939447 -2.0766e-05 0.000939509 -0.0093945 -2.48577e-07 2.82802e-07 
55 97 0 -2.92341 -4.58882 -0.295418 -2.7248 -4.70502 -0.275185 
93 90 0 2.45635 -4.52126 0.250052 2.57766 -4.45041 0.260064 
93 92 0 -2.77641 -4.77733 0.201516 -2.76787 -4.77775 0.27906 
95 97 0 -0.0329787 0.000519561 -0.0495005 -0.0329794 -4.48738e-07 -4.91254e-07 
95 92 0 2.61394 -4.49239 0.195231 2.60309 -4.49474 0.262618 
95 94 0 -2.70254 -4.5865 0.31047 -2.66894 -4.60836 0.269567 
57 97 0 2.84491 -4.41066 -0.254012 2.62748 -4.53594 -0.265462 
57 99 0 -2.67484 -4.53222 -0.348955 -2.63881 -4.55789 -0.266856 
57 59 0 -0.270903 -0.000880986 0.027079 -0.270903 -2.9767e-05 1.99754e-06 
59 99 0 2.81674 -4.57373 -0.274503 2.69133 -4.6465 -0.272119 
59 61 0 -0.105805 -0.000185657 -0.0101235 -0.105804 -8.05667e-08 4.5909e-07 
59 101 0 -2.84465 -4.41826 -0.319166 -2.63193 -4.54456 -0.266166 
97 99 0 -0.179613 0.00806916 -0.0145677 -0.179613 -1.95347e-05 -4.85761e-06 
97 94 0 2.68541 -4.57604 0.250039 2.65873 -4.5904 0.2686 
97 96 0 -2.61073 -4.42336 0.295754 -2.57452 -4.44641 0.260177 
99 101 0 -0.0301261 0.00254937 -0.00124332 -0.030126 -1.28932e-06 -1.73245e-07 
99 96 0 2.80293 -4.64311 0.268232 2.7177 -4.6921 0.274735 
99 98 0 -2.80173 -4.46177 0.364157 -2.64108 -4.56048 0.267218 
61 101 0 2.86178 -4.43467 -0.329924 2.64357 -4.56471 -0.267369 
61 102 0 -2.88637 -4.42448 -0.29899 -2.64514 -4.56608 -0.267442 
101 98 0 2.92346 -4.42788 0.339307 2.65666 -4.58655 0.268789 
101 100 0 -2.92599 -4.42382 0.312762 -2.6551 -4.58334 0.268523 
102 64 0 -2.81016 4.36706 0.344263 -2.60186 4.49246 0.26304 
102 105 0 -0.143408 0.00115669 -0.0142883 -0.143407 -7.99651e-06 5.04449e-06 
102 100 0 2.83892 -4.42356 0.349659 2.63357 -4.54737 0.26637 
102 103 0 -2.7604 -4.36409 0.291861 -2.58634 -4.46665 0.261493 
64 65 0 -0.138767 -0.00174536 0.0137641 -0.138767 -7.31651e-06 -3.33419e-06 
64 105 0 -2.734 -4.2928 -0.241073 -2.54767 -4.39974 -0.257415 
65 105 0 2.77017 -4.38958 -0.270583 2.59972 -4.48877 -0.262516 
65 106 0 -2.68024 -4.23435 -0.217334 -2.50829 -4.3318 -0.253365 
65 68 0 -0.124125 -0.00692728 -0.010069 -0.124125 -8.18337e-06 3.09401e-06 
105 106 0 -0.140918 0.00935081 0.000138195 -0.140917 -9.46339e-06 -1.36718e-06 
105 103 0 2.79024 -4.35382 0.268915 2.58932 -4.47062 0.26156 
105 104 0 -2.74696 -4.33645 0.246792 -2.56978 -4.43827 0.259703 
106 68 0 -2.68883 4.37611 0.333138 -2.57512 4.44623 0.260206 
106 109 0 -0.206772 -0.000625766 0.00353991 -0.206773 -2.21737e-05 -5.57324e-07 
106 104 0 2.69781 -4.29866 0.351871 2.54445 -4.39303 0.257124 
106 107 0 -2.61249 -4.29849 0.199588 -2.51827 -4.34983 0.254418 
68 109 0 -2.58731 -4.13595 -0.259038 -2.44328 -4.22004 -0.246951 
68 69 0 -0.00502589 0.000133407 0.000484227 -0.00502586 -8.842e-07 -8.59324e-08 
69 109 0 2.7879 -4.33 -0.297502 2.57973 -4.45277 -0.260535 
69 110 0 -2.34457 -3.81217 -0.243137 -2.2421 -3.87247 -0.226551 
69 72 0 -0.3067 0.0185657 0.0227797 -0.306699 -2.03953e-05 -4.35518e-07 
109 107 0 2.63643 -4.31151 0.305036 2.53348 -4.37401 0.255877 
109 108 0 -2.6347 -4.15961 0.263147 -2.46538 -4.25845 0.249274 
110 72 0 -2.48751 4.20871 0.342235 -2.45203 4.23478 0.247759 
110 113 0 -0.289294 0.023152 -0.0174252 -0.289292 -1.63172e-05 1.306e-05 
110 108 0 2.84493 -4.30567 0.354751 2.58529 -4.4616 0.261264 
110 111 0 -2.40155 -3.73869 0.239616 -2.22461 -3.84201 0.224693 
72 113 0 -2.29932 -3.90386 -0.171838 -2.26867 -3.91826 -0.229021 
72 73 0 -0.381483 -0.0255511 0.00395785 -0.381484 -9.76692e-06 -8.08507e-06 
73 113 0 2.46753 -4.1693 -0.267232 2.42791 -4.19354 -0.245016 
73 114 0 -2.37741 -3.83732 -0.203619 -2.26028 -3.90371 -0.228018 
73 76 0 -0.282799 0.00498923 0.0285496 -0.282798 -8.60235e-06 -1.02344e-05 
113 114 0 -0.356396 -0.00732942 -0.021278 -0.356396 -9.09377e-06 4.48711e-06 
113 111 0 2.6223 -4.22941 0.242251 2.49214 -4.30424 0.251517 
113 112 0 -2.37872 -3.81431 0.202417 -2.25064 -3.88703 0.226961 
114 76 0 -2.58428 4.05393 0.198027 -2.40561 4.15479 0.242518 
114 117 0 -0.256193 0.00475144 -0.0239561 -0.256193 -2.90026e-06 -3.58268e-06 
114 112 0 2.59411 -4.12385 0.159276 2.4372 -4.20965 0.245744 
114 115 0 -2.47793 -3.77677 0.24657 -2.26047 -3.90377 0.228102 
76 117 0 -2.4764 -3.88238 -0.138726 -2.303 -3.97732 -0.23222 
76 77 0 -0.308983 -0.0248673 -0.00576292 -0.308983 1.69037e-06 1.12165e-05 
77 117 0 2.52697 -4.02437 -0.296516 2.38084 -4.11226 -0.24027 
117 115 0 2.58419 -4.04845 0.26307 2.40479 -4.15351 0.242765 
117 116 0 -2.43716 -3.85163 0.17964 -2.28082 -3.9392 0.230195 
79 119 0 -2.48995 -4.48687 -0.284503 -2.57448 -4.43932 -0.259411 
119 81 0 -3.44044 5.43434 0.277884 -3.22138 5.55851 0.325519 
119 122 0 -0.102487 0.00072412 -0.0771685 -0.102488 -5.19688e-05 -1.10959e-06 
119 118 0 3.42684 -6.20025 0.276341 3.55318 -6.12222 0.357148 
119 120 0 -2.38745 -3.72638 0.286999 -2.21553 -3.82955 0.223716 
81 82 0 -0.363905 -0.00940847 0.0393328 -0.363907 -0.000106192 -1.19223e-05 
81 122 0 -2.56891 -3.80019 -0.372874 -2.29573 -3.96653 -0.232203 
82 122 0 2.76858 -4.69613 -0.225238 2.73117 -4.71483 -0.275923 
82 123 0 -2.35843 -4.16256 -0.279913 -2.39736 -4.14223 -0.242311 
82 85 0 -0.882069 -0.0316471 0.00224832 -0.882073 -0.000103622 4.87988e-05 
122 123 0 -0.439191 0.00689051 -0.0311048 -0.439188 -0.000120002 2.31326e-06 
122 120 0 2.7368 -4.434 0.21249 2.61071 -4.50412 0.263335 
122 121 0 -2.19607 -4.0776 0.387738 -2.32194 -4.01373 0.234941 
123 85 0 -2.3129 4.34648 0.281135 -2.46634 4.25949 0.249477 
123 126 0 -0.0115914 3.72243e-05 -0.00115868 -0.0115915 1.72967e-06 -8.14846e-08 
123 121 0 1.98507 -3.7102 0.23855 2.10891 -3.63994 0.213106 
123 124 0 -2.45231 -4.79613 0.323405 -2.69758 -4.65704 0.272418 
85 126 0 -2.79803 -4.42965 -0.433603 -2.62869 -4.53759 -0.265848 
86 126 0 2.6597 -4.1193 -0.166928 2.45335 -4.23413 -0.247781 
86 128 0 -2.7755 -4.87738 -0.346001 -2.81284 -4.85936 -0.28462 
126 128 0 -0.0967125 -1.04015e-05 -0.0096763 -0.096713 -1.19701e-05 -4.99937e-06 
126 124 0 2.04504 -4.2502 0.162979 2.35478 -4.06646 0.237863 
126 125 0 -2.11186 -4.29563 0.439752 -2.3978 -4.14163 0.242797 
128 88 0 -2.51715 4.01667 0.426647 -2.38019 4.10694 0.240947 
128 125 0 2.25645 -4.3466 0.419605 2.45642 -4.24079 0.248899 
128 127 0 -2.60775 -4.54626 0.353629 -2.62815 -4.53959 0.266046 
88 90 0 -0.35542 0.00191837 0.0143375 -0.355419 -1.85104e-05 -3.15434e-05 
88 130 0 -2.50948 -4.47052 -0.339206 -2.57042 -4.43988 -0.260108 
90 130 0 2.31942 -4.44655 -0.227105 2.51024 -4.3345 -0.253505 
90 132 0 -2.67231 -4.82854 -0.239038 -2.76491 -4.77255 -0.278929 
130 127 0 2.51149 -4.15057 0.24992 2.43229 -4.19671 0.245706 
130 129 0 -2.69223 -4.76945 0.325073 -2.74669 -4.74069 0.277382 
92 132 0 2.55635 -4.55053 -0.191711 2.61389 -4.513 -0.263578 
92 134 0 -2.65129 -4.70901 -0.200062 -2.70639 -4.67285 -0.272901 
92 94 0 -0.0714049 -0.00039836 0.0561866 -0.071408 1.63311e-06 4.05271e-06 
94 134 0 2.57132 -4.64391 -0.230931 2.65884 -4.59103 -0.268418 
94 96 0 -0.177054 -0.00879671 0.0126368 -0.177055 -1.56036e-05 9.91627e-07 
94 136 0 -2.48395 -4.49588 -0.31846 -2.5748 -4.44668 -0.260258 
132 134 0 -0.015429 6.40291e-05 -0.00154153 -0.015429 2.47256e-07 5.04646e-08 
132 129 0 2.44832 -4.64274 0.191803 2.62641 -4.53532 0.265095 
132 131 0 -2.54431 -4.72886 0.23809 -2.68927 -4.64296 0.271327 
134 136 0 -0.219381 0.00213598 -0.0377135 -0.219384 -1.18799e-05 -1.26037e-05 
134 131 0 2.57598 -4.73803 0.21457 2.70041 -4.66258 0.272451 
134 133 0 -2.45488 -4.60416 0.206723 -2.61171 -4.51002 0.263518 
96 136 0 2.76354 -4.67327 -0.268629 2.72079 -4.69766 -0.275006 
96 138 0 -2.67813 -4.39859 -0.298325 -2.58122 -4.4569 -0.260977 
96 98 0 -0.0607092 0.000840816 -0.0103653 -0.0607088 -2.91478e-06 2.34685e-06 
98 138 0 2.92307 -4.63029 -0.357063 2.74437 -4.73844 -0.27769 
98 140 0 -2.8521 -4.26393 -0.354788 -2.56855 -4.43375 -0.259889 
136 138 0 -0.0434932 0.00177456 0.0117644 -0.0434929 -1.89853e-06 -6.62803e-07 
136 133 0 2.73484 -4.83326 0.257162 2.7823 -4.80437 0.281054 
136 135 0 -2.62044 -4.33363 0.335827 -2.53981 -4.38495 0.256875 
138 135 0 2.98629 -4.7892 0.365343 2.82904 -4.8849 0.286264 
138 137 0 -2.7742 -4.23205 0.285759 -2.53337 -4.37329 0.256178 
100 140 0 2.88432 -4.47553 -0.348726 2.66757 -4.60569 -0.269874 
100 103 0 -0.228281 5.49863e-05 0.0228221 -0.22828 -1.20206e-05 -5.85492e-06 
100 141 0 -2.73276 -4.36406 -0.308568 -2.57975 -4.45545 -0.260829 
103 141 0 2.72804 -4.37901 -0.238843 2.58375 -4.46127 -0.261053 
103 104 0 -0.176909 -0.00196981 0.0175842 -0.176909 -1.26248e-05 1.93767e-06 
103 144 0 -2.73979 -4.33594 -0.325129 -2.56971 -4.43824 -0.259854 
140 141 0 -0.198675 0.00209348 -0.0300387 -0.198674 -1.80224e-05 8.269e-06 
140 137 0 2.78807 -4.48359 0.336011 2.64657 -4.56955 0.267724 
140 139 0 -2.55535 -4.24088 0.352644 -2.48307 -4.28867 0.25112 
141 144 0 -0.25203 -0.000301485 -0.015675 -0.252031 -1.53762e-05 -8.16754e-06 
141 139 0 2.64775 -4.40432 0.216754 2.5741 -4.44445 0.260054 
141 142 0 -2.59004 -4.33216 0.330254 -2.53068 -4.37088 0.255871 
104 144 0 2.72612 -4.30493 -0.33287 2.55374 -4.40914 -0.258227 
104 145 0 -2.71265 -4.3362 -0.271823 -2.56146 -4.42448 -0.258947 
104 107 0 -0.228922 0.00403373 0.0197646 -0.228921 -2.45179e-05 -6.67028e-06 
144 145 0 -0.275496 0.0032455 -0.0273464 -0.275495 -2.70049e-05 8.0285e-06 
144 142 0 2.62574 -4.3398 0.308261 2.54287 -4.39078 0.25722 
144 143 0 -2.60556 -4.30626 0.357603 -2.52392 -4.35952 0.255275 
145 107 0 -2.76723 4.29909 0.277087 -2.5602 4.42009 0.258572 
145 148 0 -0.193875 0.00366507 -0.0109818 -0.193875 -1.93926e-05 -1.10402e-06 
145 143 0 2.76102 -4.35772 0.248345 2.58312 -4.46001 0.261039 
145 146 0 -2.77829 -4.27379 0.302662 -2.55173 -4.40756 0.258055 
107 148 0 -2.77889 -4.30125 -0.228514 -2.56191 -4.4251 -0.258865 
107 108 0 -0.183951 -0.000856957 0.0165975 -0.183952 -2.14799e-05 7.10502e-06 
108 148 0 2.77597 -4.37203 -0.344882 2.59572 -4.48128 -0.262387 
108 149 0 -2.74107 -4.09888 -0.285436 -2.46644 -4.26 -0.249333 
148 149 0 -0.116335 0.003369 -0.00647846 -0.116335 -1.49624e-05 1.42086e-06 
148 146 0 2.79365 -4.2268 0.336006 2.53704 -4.38009 0.256505 
148 147 0 -2.86371 -4.44207 0.239763 -2.64424 -4.56752 0.267139 
149 111 0 -2.87019 4.39246 0.243279 -2.62673 4.53229 0.265085 
149 147 0 2.9216 -4.22095 0.245725 2.56464 -4.42697 0.258895 
149 150 0 -2.90028 -4.26892 0.291736 -2.57985 -4.45625 0.260479 
111 152 0 -2.33132 -3.57468 -0.244973 -2.13624 -3.68936 -0.21544 
111 112 0 -0.309102 -0.000413718 0.0275444 -0.309101 -1.74275e-05 -1.11321e-05 
112 152 0 2.63855 -4.19303 -0.113173 2.47707 -4.27855 -0.249684 
112 153 0 -2.42392 -3.73178 -0.254735 -2.22766 -3.84718 -0.22471 
112 115 0 -0.301283 -0.0131432 0.027866 -0.301285 -2.65251e-06 1.43942e-05 
152 153 0 -0.328222 -0.00450111 -0.0111624 -0.328223 -9.21549e-06 -1.52373e-05 
152 150 0 2.95673 -4.39152 0.125842 2.64579 -4.56358 0.266528 
152 151 0 -2.31406 -3.36533 0.231326 -2.04113 -3.52486 0.205836 
153 115 0 -2.56795 4.01803 0.215563 -2.38627 4.12173 0.240977 
153 156 0 -0.40754 -0.00654449 0.018632 -0.40754 -6.17424e-06 -6.64764e-06 
153 151 0 2.64351 -4.06783 0.239258 2.42708 -4.19278 0.245073 
153 154 0 -2.41183 -3.68158 0.24059 -2.20247 -3.80386 0.22244 
115 156 0 -2.41402 -3.81148 -0.292295 -2.26046 -3.90413 -0.228324 
115 116 0 -0.33823 -0.000893653 0.0310634 -0.33823 -7.26618e-06 -2.80945e-06 
116 156 0 2.53959 -3.97898 -0.253066 2.36332 -4.08187 -0.238686 
156 154 0 2.61535 -4.00285 0.292934 2.39343 -4.13431 0.241846 
156 155 0 -2.53151 -3.77412 0.247873 -2.27259 -3.9251 0.229606 
118 158 0 -3.36851 -6.17857 0.0798974 -3.51555 -6.09375 0.00073801 
158 120 0 -2.77188 4.4882 -0.0618622 -2.64604 4.5612 0.000128684 
158 157 0 2.91468 -5.14225 -0.3502 2.95777 -5.12038 -0.298563 
158 159 0 -3.51814 -5.52524 -0.109509 -3.28655 -5.66004 -0.0209802 
120 121 0 -0.194331 0.00329012 0.0615871 -0.194335 -9.49563e-05 1.713e-05 
120 161 0 -2.22979 -3.68057 -0.305901 -2.15624 -3.72826 -0.217718 
121 161 0 2.51992 -3.54954 -0.225246 2.1739 -3.75044 -0.219521 
121 162 0 -2.92183 -4.2496 -0.405541 -2.58154 -4.45526 -0.260631 
161 159 0 1.94516 -4.18546 0.210366 2.29992 -3.98007 0.217487 
161 160 0 -1.65966 -3.05685 0.321678 -1.74724 -3.01459 0.175998 
162 124 0 -2.42518 4.34075 0.156576 -2.48956 4.29793 0.251153 
162 165 0 -0.142995 0.00141131 -0.198643 -0.143 -8.35401e-06 -3.63899e-06 
162 160 0 2.38489 -3.50226 0.157776 2.11681 -3.65432 0.213215 
162 163 0 -2.74843 -5.08733 0.137342 -2.89249 -5.00475 0.0331265 
124 125 0 -0.299648 -0.00265492 0.216097 -0.299673 -8.96475e-06 3.40206e-05 
124 165 0 -2.54361 -4.70279 -0.333252 -2.67936 -4.62787 -0.270552 
125 165 0 2.23908 -4.43808 -0.363288 2.48996 -4.29931 -0.251918 
125 167 0 -2.20916 -4.18914 -0.480587 -2.37712 -4.10596 -0.240635 
125 127 0 -0.182202 -0.000518287 0.0182004 -0.182201 -1.29856e-05 -1.27425e-05 
165 167 0 -0.226065 -0.0106877 -0.00286258 -0.226066 -2.36727e-05 -3.60183e-06 
165 163 0 2.63546 -4.24737 0.125252 2.50164 -4.32541 0.0287591 
165 164 0 -2.85685 -4.87556 0.1565 -2.82789 -4.89346 0.0988287 
167 127 0 -2.10877 4.23274 0.243586 -2.36546 4.08435 0.239057 
167 164 0 2.54088 -3.84489 0.0945309 2.30383 -3.98231 0.0805102 
167 166 0 -2.86093 -4.59377 0.29313 -2.71047 -4.68409 0.0675008 
127 169 0 -2.38017 -4.47307 -0.374574 -2.54176 -4.38633 -0.256475 
129 169 0 2.54289 -4.385 -0.176556 2.53941 -4.38237 -0.25608 
129 131 0 -0.0547777 0.00128641 0.0374593 -0.0547772 3.15298e-06 -7.88472e-07 
129 171 0 -2.73834 -5.0166 -0.328538 -2.86475 -4.94569 -0.289009 
169 166 0 2.61044 -4.74826 -0.0363911 2.71106 -4.68859 0.0672275 
169 168 0 -2.45737 -4.11119 0.223744 -2.39976 -4.14738 0.0854699 
131 171 0 2.70896 -4.84144 -0.222328 2.77858 -4.79774 -0.280264 
131 173 0 -2.60584 -4.61198 -0.225213 -2.65363 -4.58183 -0.267589 
131 133 0 -0.122848 -0.00291931 -0.0119345 -0.122849 -6.10666e-06 -8.65382e-08 
133 173 0 2.84836 -5.03425 -0.286633 2.89853 -5.00487 -0.292309 
133 135 0 -0.0504692 0.00179987 -0.00611214 -0.0504688 -1.06688e-06 3.61243e-06 
133 175 0 -2.63184 -4.40335 -0.176793 -2.56896 -4.43497 -0.259075 
171 173 0 -0.085649 0.0020886 -0.00313914 -0.085649 -1.94751e-06 8.89681e-07 
171 168 0 2.74586 -5.03116 0.0293532 2.86794 -4.95906 0.10221 
171 170 0 -2.69516 -4.82155 0.160756 -2.7657 -4.78186 0.11447 
173 175 0 -0.0180669 0.000598377 0.0313527 -0.0180665 -6.76652e-07 -2.19421e-07 
173 170 0 2.98059 -4.97198 0.115793 2.90182 -5.01744 0.120052 
173 172 0 -2.80001 -4.66696 0.0579404 -2.72403 -4.70987 0.104414 
135 175 0 2.94259 -4.92722 -0.37514 2.87791 -4.96962 -0.290726 
135 177 0 -2.6152 -4.18792 -0.323506 -2.47513 -4.27334 -0.250251 
137 177 0 2.73628 -4.45235 -0.373725 2.62098 -4.5255 -0.264922 
137 139 0 -0.223539 -0.00456819 -0.0203615 -0.22354 -2.51472e-05 -5.17677e-06 
137 179 0 -2.49069 -4.24734 -0.240481 -2.46678 -4.26069 -0.249009 
175 177 0 -0.0853074 0.00126002 -0.0120023 -0.085308 -4.85301e-06 -4.72517e-06 
175 172 0 2.83389 -4.99871 0.192913 2.87755 -4.97529 0.110372 
175 174 0 -2.4505 -4.32548 0.0165122 -2.48776 -4.30209 0.0976761 
177 179 0 -0.258606 -0.00711782 0.0149658 -0.258608 -2.97297e-05 1.97874e-05 
177 174 0 2.70984 -4.54339 0.224192 2.64931 -4.58112 0.104312 
177 176 0 -2.41289 -4.07468 0.150264 -2.37064 -4.10044 0.0877892 
139 179 0 2.7785 -4.40186 -0.238216 2.60635 -4.50012 -0.262916 
139 142 0 -0.207381 -0.00487517 0.0124882 -0.207382 -1.61546e-05 5.9514e-06 
139 180 0 -2.69338 -4.24231 -0.336219 -2.51801 -4.34865 -0.254346 
142 180 0 2.82478 -4.50804 -0.326626 2.66599 -4.60335 -0.26942 
142 143 0 -0.323447 0.00109826 -0.010203 -0.323448 -2.51197e-05 -5.77246e-06 
142 183 0 -2.66239 -4.16818 -0.317177 -2.4776 -4.27909 -0.250186 
179 180 0 -0.136917 -0.000623774 0.0359259 -0.136915 -9.79967e-06 -8.1704e-06 
179 176 0 2.61146 -4.64991 0.101705 2.66948 -4.61643 0.098441 
179 178 0 -2.44149 -4.00044 0.0628738 -2.34513 -4.05551 0.0914833 
180 183 0 -0.243106 0.00896229 0.00732887 -0.243105 -2.44424e-05 1.11354e-05 
180 178 0 2.705 -4.562 0.202328 2.6557 -4.59273 0.103927 
180 181 0 -2.4615 -4.19905 0.137984 -2.43648 -4.21463 0.077608 
143 183 0 2.74145 -4.5486 -0.24497 2.66043 -4.59414 -0.268535 
143 184 0 -2.61272 -4.11633 -0.368491 -2.44389 -4.22118 -0.246928 
143 146 0 -0.287985 0.00106725 0.0287841 -0.287985 -2.64988e-05 6.40303e-06 
183 184 0 -0.3934 0.00368457 -0.0123303 -0.3934 -3.98212e-05 -1.78372e-05 
183 181 0 2.85756 -4.42065 0.0756858 2.63166 -4.55113 0.0835731 
183 182 0 -2.6238 -4.28839 0.106819 -2.51516 -4.35181 0.0423123 
184 146 0 -2.7711 4.2816 0.34152 -2.55492 4.41167 0.258212 
184 187 0 -0.299506 0.00433572 -0.0071709 -0.299505 -2.12149e-05 1.96913e-05 
184 182 0 2.91979 -4.30547 0.125498 2.5975 -4.4926 0.0439219 
184 185 0 -2.84925 -4.09407 0.150407 -2.48734 -4.30355 0.00917357 
146 187 0 -2.77345 -4.20973 -0.298006 -2.52278 -4.35739 -0.254682 
146 147 0 -0.258883 -0.00388401 -0.0215433 -0.258885 -2.27982e-05 -1.53992e-05 
147 187 0 2.75881 -4.40477 -0.256944 2.6031 -4.49463 -0.262421 
147 188 0 -2.86096 -4.25395 -0.227257 -2.56195 -4.42528 -0.257896 
147 150 0 -0.0910907 -0.00157292 0.0103548 -0.0910908 -1.30736e-05 -1.50519e-06 